<?xml version="1.0"?>
<VTKFile type="UnstructuredGrid"  version="0.1"  >
<UnstructuredGrid>
<Piece  NumberOfPoints="8707" NumberOfCells="17106">
<Points>
<DataArray  type="Float64"  NumberOfComponents="3"  format="ascii">0 0 0  24 0 0  0 24 0  -24 0 0  0 -24 0  23.99487400288311 0.4960056307788943 0  23.97949820118893 0.9917993845415323 0  23.95387916294778 1.487169474840046 0  23.91802783174803 1.981904296308677 0  23.87195952208539 2.475792514714516 0  23.81569391277018 2.968623157836172 0  23.74925503854737 3.4601857051367 0  23.6726712799028 3.950270177299924 0  23.58597535089021 4.438667226454325 0  23.4892042850303 4.925168226174012 0  23.38239941978476 5.409565359032961 0  23.26560637846421 5.891651707489636 0  23.13887505122393 6.371221340045146 0  23.0022595734005 6.848069400780419 0  22.8558183025666 7.32199219612133 0  22.69961379325479 7.792787282935219 0  22.53371277126165 8.26025355193649 0  22.35818610361906 8.724191318164433 0  22.1731087695725 9.184402402590333 0  21.97855982794553 9.64069021851749 0  21.7746223831131 10.0928598559987 0  21.56138355103757 10.54071816173104 0  21.33893441964398 10.98407382687014 0  21.10737001202069 11.422737464183 0  20.86678924486664 11.8565216910491 0  20.61729488550603 12.28524121065952 0  20.35899350950899 12.70871288839947 0  20.09199545553603 13.12675582978215 0  19.81641477566336 13.53919146178496 0  19.53236918867969 13.94584360578866 0  19.23998002878202 14.34653855437154 0  18.93937219600496 14.74110514246454 0  18.63067409938515 15.12937482523648 0  18.31401760442001 15.51118174688808 0  17.98953797534125 15.8863628132356 0  17.65737381920936 16.25475775915162 0  17.31766702672083 16.61620921725608 0  16.970562708312 16.97056278864228 0  16.61620913671895 17.31766710399578 0  16.25475767943574 17.657373892593 0  15.88636273471959 17.98953804467788 0  15.51118167004444 18.31401766950325 0  15.12937474937716 18.63067416098808 0  14.74110506727146 18.93937225453008 0  14.34653848066587 19.23998008374161 0  13.94584353366598 19.53236924017429 0  13.53919139034405 19.81641482447401 0  13.12675575948677 20.09199550146229 0  12.70871281906658 20.35899355278872 0  12.28524114286092 20.61729492590523 0  11.85652162524116 20.86678928225875 0  11.42273739956418 21.10737004699065 0  10.98407376199692 21.33893445303703 0  10.54071809939439 21.5613835815121 0  10.09285979643608 21.77462241072126 0  9.640690161404049 21.97855985299781 0  9.184402348454745 22.1731087919962 0  8.724191267218668 22.35818612349816 0  8.260253502504627 22.53371278938205 0  7.792787236621528 22.6996138091543 0  7.321992153780769 22.85581831613064 0  6.84806936066482 23.00225958534343 0  6.371221302556867 23.13887506154622 0  5.891651673582267 23.26560638705072 0  5.409565327061973 23.38239942718131 0  4.925168196798831 23.48920429118963 0  4.438667201106657 23.58597535566041 0  3.950270154991194 23.67267128362547 0  3.460185685885364 23.74925504135222 0  2.968623142045634 23.81569391473847 0  2.475792501608699 23.87195952344462 0  1.981904285069455 23.91802783267934 0  1.487169466854936 23.95387916344354 0  0.9917993798090214 23.97949820138466 0  0.4960056274668265 23.99487400295157 0  -0.4960056307788943 23.99487400288311 0  -0.9917993845415323 23.97949820118893 0  -1.487169474840046 23.95387916294778 0  -1.981904296308677 23.91802783174803 0  -2.475792514714516 23.87195952208539 0  -2.968623157836172 23.81569391277018 0  -3.4601857051367 23.74925503854737 0  -3.950270177299924 23.6726712799028 0  -4.438667226454325 23.58597535089021 0  -4.925168226174012 23.4892042850303 0  -5.409565359032961 23.38239941978476 0  -5.891651707489636 23.26560637846421 0  -6.371221340045146 23.13887505122393 0  -6.848069400780419 23.0022595734005 0  -7.32199219612133 22.8558183025666 0  -7.792787282935219 22.69961379325479 0  -8.26025355193649 22.53371277126165 0  -8.724191318164433 22.35818610361906 0  -9.184402402590333 22.1731087695725 0  -9.64069021851749 21.97855982794553 0  -10.0928598559987 21.7746223831131 0  -10.54071816173104 21.56138355103757 0  -10.98407382687014 21.33893441964398 0  -11.422737464183 21.10737001202069 0  -11.8565216910491 20.86678924486664 0  -12.28524121065952 20.61729488550603 0  -12.70871288839947 20.35899350950899 0  -13.12675582978215 20.09199545553603 0  -13.53919146178496 19.81641477566336 0  -13.94584360578866 19.53236918867969 0  -14.34653855437154 19.23998002878202 0  -14.74110514246454 18.93937219600496 0  -15.12937482523648 18.63067409938515 0  -15.51118174688808 18.31401760442001 0  -15.8863628132356 17.98953797534125 0  -16.25475775915162 17.65737381920936 0  -16.61620921725608 17.31766702672083 0  -16.97056278864228 16.970562708312 0  -17.31766710399578 16.61620913671895 0  -17.657373892593 16.25475767943574 0  -17.98953804467788 15.88636273471959 0  -18.31401766950325 15.51118167004444 0  -18.63067416098808 15.12937474937716 0  -18.93937225453008 14.74110506727146 0  -19.23998008374161 14.34653848066587 0  -19.53236924017429 13.94584353366598 0  -19.81641482447401 13.53919139034405 0  -20.09199550146229 13.12675575948677 0  -20.35899355278872 12.70871281906658 0  -20.61729492590523 12.28524114286092 0  -20.86678928225875 11.85652162524116 0  -21.10737004699065 11.42273739956418 0  -21.33893445303703 10.98407376199692 0  -21.5613835815121 10.54071809939439 0  -21.77462241072126 10.09285979643608 0  -21.97855985299781 9.640690161404049 0  -22.1731087919962 9.184402348454745 0  -22.35818612349816 8.724191267218668 0  -22.53371278938205 8.260253502504627 0  -22.6996138091543 7.792787236621528 0  -22.85581831613064 7.321992153780769 0  -23.00225958534343 6.84806936066482 0  -23.13887506154622 6.371221302556867 0  -23.26560638705072 5.891651673582267 0  -23.38239942718131 5.409565327061973 0  -23.48920429118963 4.925168196798831 0  -23.58597535566041 4.438667201106657 0  -23.67267128362547 3.950270154991194 0  -23.74925504135222 3.460185685885364 0  -23.81569391473847 2.968623142045634 0  -23.87195952344462 2.475792501608699 0  -23.91802783267934 1.981904285069455 0  -23.95387916344354 1.487169466854936 0  -23.97949820138466 0.9917993798090214 0  -23.99487400295157 0.4960056274668265 0  -23.99487400288311 -0.4960056307788943 0  -23.97949820118893 -0.9917993845415323 0  -23.95387916294778 -1.487169474840046 0  -23.91802783174803 -1.981904296308677 0  -23.87195952208539 -2.475792514714516 0  -23.81569391277018 -2.968623157836172 0  -23.74925503854737 -3.4601857051367 0  -23.6726712799028 -3.950270177299924 0  -23.58597535089021 -4.438667226454325 0  -23.4892042850303 -4.925168226174012 0  -23.38239941978476 -5.409565359032961 0  -23.26560637846421 -5.891651707489636 0  -23.13887505122393 -6.371221340045146 0  -23.0022595734005 -6.848069400780419 0  -22.8558183025666 -7.32199219612133 0  -22.69961379325479 -7.792787282935219 0  -22.53371277126165 -8.26025355193649 0  -22.35818610361906 -8.724191318164433 0  -22.1731087695725 -9.184402402590333 0  -21.97855982794553 -9.64069021851749 0  -21.7746223831131 -10.0928598559987 0  -21.56138355103757 -10.54071816173104 0  -21.33893441964398 -10.98407382687014 0  -21.10737001202069 -11.422737464183 0  -20.86678924486664 -11.8565216910491 0  -20.61729488550603 -12.28524121065952 0  -20.35899350950899 -12.70871288839947 0  -20.09199545553603 -13.12675582978215 0  -19.81641477566336 -13.53919146178496 0  -19.53236918867969 -13.94584360578866 0  -19.23998002878202 -14.34653855437154 0  -18.93937219600496 -14.74110514246454 0  -18.63067409938515 -15.12937482523648 0  -18.31401760442001 -15.51118174688808 0  -17.98953797534125 -15.8863628132356 0  -17.65737381920936 -16.25475775915162 0  -17.31766702672083 -16.61620921725608 0  -16.970562708312 -16.97056278864228 0  -16.61620913671895 -17.31766710399578 0  -16.25475767943574 -17.657373892593 0  -15.88636273471959 -17.98953804467788 0  -15.51118167004444 -18.31401766950325 0  -15.12937474937716 -18.63067416098808 0  -14.74110506727146 -18.93937225453008 0  -14.34653848066587 -19.23998008374161 0  -13.94584353366598 -19.53236924017429 0  -13.53919139034405 -19.81641482447401 0  -13.12675575948677 -20.09199550146229 0  -12.70871281906658 -20.35899355278872 0  -12.28524114286092 -20.61729492590523 0  -11.85652162524116 -20.86678928225875 0  -11.42273739956418 -21.10737004699065 0  -10.98407376199692 -21.33893445303703 0  -10.54071809939439 -21.5613835815121 0  -10.09285979643608 -21.77462241072126 0  -9.640690161404049 -21.97855985299781 0  -9.184402348454745 -22.1731087919962 0  -8.724191267218668 -22.35818612349816 0  -8.260253502504627 -22.53371278938205 0  -7.792787236621528 -22.6996138091543 0  -7.321992153780769 -22.85581831613064 0  -6.84806936066482 -23.00225958534343 0  -6.371221302556867 -23.13887506154622 0  -5.891651673582267 -23.26560638705072 0  -5.409565327061973 -23.38239942718131 0  -4.925168196798831 -23.48920429118963 0  -4.438667201106657 -23.58597535566041 0  -3.950270154991194 -23.67267128362547 0  -3.460185685885364 -23.74925504135222 0  -2.968623142045634 -23.81569391473847 0  -2.475792501608699 -23.87195952344462 0  -1.981904285069455 -23.91802783267934 0  -1.487169466854936 -23.95387916344354 0  -0.9917993798090214 -23.97949820138466 0  -0.4960056274668265 -23.99487400295157 0  0.4960056307788943 -23.99487400288311 0  0.9917993845415323 -23.97949820118893 0  1.487169474840046 -23.95387916294778 0  1.981904296308677 -23.91802783174803 0  2.475792514714516 -23.87195952208539 0  2.968623157836172 -23.81569391277018 0  3.4601857051367 -23.74925503854737 0  3.950270177299924 -23.6726712799028 0  4.438667226454325 -23.58597535089021 0  4.925168226174012 -23.4892042850303 0  5.409565359032961 -23.38239941978476 0  5.891651707489636 -23.26560637846421 0  6.371221340045146 -23.13887505122393 0  6.848069400780419 -23.0022595734005 0  7.32199219612133 -22.8558183025666 0  7.792787282935219 -22.69961379325479 0  8.26025355193649 -22.53371277126165 0  8.724191318164433 -22.35818610361906 0  9.184402402590333 -22.1731087695725 0  9.64069021851749 -21.97855982794553 0  10.092
[...]
<PointData  Scalars="f"> 
<DataArray  type="Float64"  Name="f"  format="ascii">0.0000000000000000e+00  0.0000000000000000e+00  0.0000000000000000e+00  0.0000000000000000e+00  0.0000000000000000e+00  0.0000000000000000e+00  0.0000000000000000e+00  0.0000000000000000e+00  0.0000000000000000e+00  0.0000000000000000e+00  0.0000000000000000e+00  0.0000000000000000e+00  0.0000000000000000e+00  0.0000000000000000e+00  0.0000000000000000e+00  0.0000000000000000e+00  0.0000000000000000e+00  0.0000000000000000e+00  0.0000000000000000e+00  0.0000000000000000e+00  0.0000000000000000e+00  0.0000000000000000e+00  0.0000000000000000e+00  0.0000000000000000e+00  0.0000000000000000e+00  0.0000000000000000e+00  0.0000000000000000e+00  0.0000000000000000e+00  0.0000000000000000e+00  0.0000000000000000e+00  0.0000000000000000e+00  0.0000000000000000e+00  0.0000000000000000e+00  0.0000000000000000e+00  0.0000000000000000e+00  0.0000000000000000e+00  0.0000000000000000e+00  0.0000000000000000e+00  0.0000000000000000e+00  0.0000000000000000e+00  0.0000000000000000e+00  0.0000000000000000e+00  0.0000000000000000e+00  0.0000000000000000e+00  0.0000000000000000e+00  0.0000000000000000e+00  0.0000000000000000e+00  0.0000000000000000e+00  0.0000000000000000e+00  0.0000000000000000e+00  0.0000000000000000e+00  0.0000000000000000e+00  0.0000000000000000e+00  0.0000000000000000e+00  0.0000000000000000e+00  0.0000000000000000e+00  0.0000000000000000e+00  0.0000000000000000e+00  0.0000000000000000e+00  0.0000000000000000e+00  0.0000000000000000e+00  0.0000000000000000e+00  0.0000000000000000e+00  0.0000000000000000e+00  0.0000000000000000e+00  0.0000000000000000e+00  0.0000000000000000e+00  0.0000000000000000e+00  0.0000000000000000e+00  0.0000000000000000e+00  0.0000000000000000e+00  0.0000000000000000e+00  0.0000000000000000e+00  0.0000000000000000e+00  0.0000000000000000e+00  0.0000000000000000e+00  0.0000000000000000e+00  0.0000000000000000e+00  0.0000000000000000e+00  0.0000000000000000e+00  0.0000000000000000e+00  0.0000000000000000e+00  0.0000000000000000e+00  0.0000000000000000e+00  0.0000000000000000e+00  0.0000000000000000e+00  0.0000000000000000e+00  0.0000000000000000e+00  0.0000000000000000e+00  0.0000000000000000e+00  0.0000000000000000e+00  0.0000000000000000e+00  0.0000000000000000e+00  0.0000000000000000e+00  0.0000000000000000e+00  0.0000000000000000e+00  0.0000000000000000e+00  0.0000000000000000e+00  0.0000000000000000e+00  0.0000000000000000e+00  0.0000000000000000e+00  0.0000000000000000e+00  0.0000000000000000e+00  0.0000000000000000e+00  0.0000000000000000e+00  0.0000000000000000e+00  0.0000000000000000e+00  0.0000000000000000e+00  0.0000000000000000e+00  0.0000000000000000e+00  0.0000000000000000e+00  0.0000000000000000e+00  0.0000000000000000e+00  0.0000000000000000e+00  0.0000000000000000e+00  0.0000000000000000e+00  0.0000000000000000e+00  0.0000000000000000e+00  0.0000000000000000e+00  0.0000000000000000e+00  0.0000000000000000e+00  0.0000000000000000e+00  0.0000000000000000e+00  0.0000000000000000e+00  0.0000000000000000e+00  0.0000000000000000e+00  0.0000000000000000e+00  0.0000000000000000e+00  0.0000000000000000e+00  0.0000000000000000e+00  0.0000000000000000e+00  0.0000000000000000e+00  0.0000000000000000e+00  0.0000000000000000e+00  0.0000000000000000e+00  0.0000000000000000e+00  0.0000000000000000e+00  0.0000000000000000e+00  0.0000000000000000e+00  0.0000000000000000e+00  0.0000000000000000e+00  0.0000000000000000e+00  0.0000000000000000e+00  0.0000000000000000e+00  0.0000000000000000e+00  0.0000000000000000e+00  0.0000000000000000e+00  0.0000000000000000e+00  0.0000000000000000e+00  0.0000000000000000e+00  0.0000000000000000e+00  0.0000000000000000e+00  0.0000000000000000e+00  0.0000000000000000e+00  0.0000000000000000e+00  0.0000000000000000e+00  0.0000000000000000e+00  0.0000000000000000e+00  0.0000000000000000e+00  0.0000000000000000e+00  0.0000000000000000e+00  0.0000000000000000e+00  0.0000000000000000e+00  0.0000000000000000e+00  0.0000000000000000e+00  0.0000000000000000e+00  0.0000000000000000e+00  0.0000000000000000e+00  0.0000000000000000e+00  0.0000000000000000e+00  0.0000000000000000e+00  0.0000000000000000e+00  0.0000000000000000e+00  0.0000000000000000e+00  0.0000000000000000e+00  0.0000000000000000e+00  0.0000000000000000e+00  0.0000000000000000e+00  0.0000000000000000e+00  0.0000000000000000e+00  0.0000000000000000e+00  0.0000000000000000e+00  0.0000000000000000e+00  0.0000000000000000e+00  0.0000000000000000e+00  0.0000000000000000e+00  0.0000000000000000e+00  0.0000000000000000e+00  0.0000000000000000e+00  0.0000000000000000e+00  0.0000000000000000e+00  0.0000000000000000e+00  0.0000000000000000e+00  0.0000000000000000e+00  0.0000000000000000e+00  0.0000000000000000e+00  0.0000000000000000e+00  0.0000000000000000e+00  0.0000000000000000e+00  0.0000000000000000e+00  0.0000000000000000e+00  0.0000000000000000e+00  0.0000000000000000e+00  0.0000000000000000e+00  0.0000000000000000e+00  0.0000000000000000e+00  0.0000000000000000e+00  0.0000000000000000e+00  0.0000000000000000e+00  0.0000000000000000e+00  0.0000000000000000e+00  0.0000000000000000e+00  0.0000000000000000e+00  0.0000000000000000e+00  0.0000000000000000e+00  0.0000000000000000e+00  0.0000000000000000e+00  0.0000000000000000e+00  0.0000000000000000e+00  0.0000000000000000e+00  0.0000000000000000e+00  0.0000000000000000e+00  0.0000000000000000e+00  0.0000000000000000e+00  0.0000000000000000e+00  0.0000000000000000e+00  0.0000000000000000e+00  0.0000000000000000e+00  0.0000000000000000e+00  0.0000000000000000e+00  0.0000000000000000e+00  0.0000000000000000e+00  0.0000000000000000e+00  0.0000000000000000e+00  0.0000000000000000e+00  0.0000000000000000e+00  0.0000000000000000e+00  0.0000000000000000e+00  0.0000000000000000e+00  0.0000000000000000e+00  0.0000000000000000e+00  0.0000000000000000e+00  0.0000000000000000e+00  0.0000000000000000e+00  0.0000000000000000e+00  0.0000000000000000e+00  0.0000000000000000e+00  0.0000000000000000e+00  0.0000000000000000e+00  0.0000000000000000e+00  0.0000000000000000e+00  0.0000000000000000e+00  0.0000000000000000e+00  0.0000000000000000e+00  0.0000000000000000e+00  0.0000000000000000e+00  0.0000000000000000e+00  0.0000000000000000e+00  0.0000000000000000e+00  0.0000000000000000e+00  0.0000000000000000e+00  0.0000000000000000e+00  0.0000000000000000e+00  0.0000000000000000e+00  0.0000000000000000e+00  0.0000000000000000e+00  0.0000000000000000e+00  0.0000000000000000e+00  0.0000000000000000e+00  0.0000000000000000e+00  0.0000000000000000e+00  0.0000000000000000e+00  0.0000000000000000e+00  0.0000000000000000e+00  0.0000000000000000e+00  0.0000000000000000e+00  0.0000000000000000e+00  0.0000000000000000e+00  0.0000000000000000e+00  0.0000000000000000e+00  0.0000000000000000e+00  0.0000000000000000e+00  0.0000000000000000e+00  0.0000000000000000e+00  0.0000000000000000e+00  0.0000000000000000e+00  0.0000000000000000e+00  0.0000000000000000e+00  0.0000000000000000e+00  0.0000000000000000e+00  0.0000000000000000e+00  0.0000000000000000e+00  0.0000000000000000e+00  0.0000000000000000e+00  0.0000000000000000e+00  0.0000000000000000e+00  0.0000000000000000e+00  0.0000000000000000e+00  0.0000000000000000e+00  0.0000000000000000e+00  0.0000000000000000e+00  0.0000000000000000e+00  0.0000000000000000e+00  0.0000000000000000e+00  0.0000000000000000e+00  1.7137086383542544e+00  1.3366227428251121e+00  1.3794500223289801e+00  1.6880128781369999e+00  1.4053039646903900e+00  1.5271425393757896e+00  1.5007945407866010e+00  1.5189122012801755e+00  1.6725089601311256e+00  1.5158948557407275e+00  1.4846689267836286e+00  1.5011659014677714e+00  1.6398347078692290e+00  1.4923183643000928e+00  1.4308941714316139e+00  1.4910197378075090e+00  1.6634663237914313e+00  1.6477185404670576e+00  1.1809560372945258e+00  1.4349186248476977e+00  1.7242327613319544e+00  1.6112299999583044e+00  1.4305724613772137e+00  1.4464410639952408e+00  1.5779487270747152e+00  1.4193050502346292e+00  1.3997089345760025e+00  1.5199407606824653e+00  1.3667977071773372e+00  1.5930135815416586e+00  1.5197009825490437e+00  1.5786314748328365e+00  1.5761870022278457e+00  1.5648957248306161e+00  1.3295786745339198e+00  1.5521413021438881e+00  1.6220633981494599e+00  1.4275023187795197e+00  1.3614055173741821e+00  1.4184334341737521e+00  1.4775987343104815e+00  1.6034016961950355e+00  1.6165868770586671e+00  1.2667383368744791e+00  1.5045333118269413e+00  1.6620969051970000e+00  1.3974155733142035e+00  1.6977950101305121e+00  1.5065771483807104e+00  1.5603329702706434e+00  1.4272019951884460e+00  1.4186170551240351e+00  1.4187913409956265e+00  1.5369159621726274e+00  1.4347868104153929e+00  1.6682432271175740e+00  1.5404474892136872e+00  1.5143852124606583e+00  1.4251418311001645e+00  1.6618580065750914e+00  1.7035213517143193e+00  1.5190415662328807e+00  1.3738420669750224e+00  1.4623946729328543e+00  1.4613357173942880e+00  1.4807412457182283e+00  1.3438076762261073e+00  1.5192640654948442e+00  1.2020602198008985e+00  1.5190012020117267e+00  1.4346020675520375e+00  1.5566713557178034e+00  1.4989515396333286e+00  1.3374637540822696e+00  1.5547336520205854e+00  1.5192219422478295e+00  1.5189996308441260e+00  1.4145984596024959e+00  1.4960678641101408e+00  1.5195348852553099e+00  1.3237855184823659e+00  1.4882950580542040e+00  1.5194991703487795e+00  1.6355968289707810e+00  1.5492078322947456e+00  1.6577590034948340e+00  1.4437515050190302e+00  1.5187575249300822e+00  1.5509310653432267e+00  1.4512820417573757e+00  1.3906937538410304e+00  1.3992477597174282e+00  1.5194176636768013e+00  1.6488491778756067e+00  1.3435090722989591e+00  1.5193267978267155e+00  1.4470790866301853e+00  1.3548949752394874e+00  1.5181182686667205e+00  1.5145451109167070e+00  1.6229403530972228e+00  1.4935499227505837e+00  1.4474719479205547e+00  1.5876354331033382e+00  1.4491529472528506e+00  1.4544585313688050e+00  1.4903727815258705e+00  1.5890287492605033e+00  1.5317725017434605e+00  1.4721007388612235e+00  1.5188325184260996e+00  1.6146314005807616e+00  1.5137703307409893e+00  1.6119978383998481e+00  1.6161515980287220e+00  1.5187300100220686e+00  1.5530639283540528e+00  1.6845810106906582e+00  1.4644544500972523e+00  1.3761235573691923e+00  1.5188207290719173e+00  1.4927317497757884e+00  1.7763315337863117e+00  1.5038036000597412e+00  1.4930090808555074e+00  1.1962745289505674e+00  1.5377835674416318e+00  1.4020247575493423e+00  1.4997079203841772e+00  2.9821992454343738e+00  2.9922736374397960e+00  4.4315762501541727e+00  4.4303586969858717e+00  5.8355038929882994e+00  5.8254433297964612e+00  7.1973316853774785e+00  7.1869691931751687e+00  8.5175569088216303e+00  8.5106134292114550e+00  9.7976169212893556e+00  9.7873189792036115e+00  1.1033437587920842e+01  1.1026666690232332e+01  1.2227885324678184e+01  1.2217883414414606e+01  1.3377232941452545e+01  1.3370672860199722e+01  1.4484602346477230e+01  1.4474930434335088e+01  1.5546747848861791e+01  1.5540419642045363e+01  1.6567064959384005e+01  1.6557750969485916e+01  1.7542808626244888e+01  1.7536726243446619e+01  1.8477632525819274e+01  1.8468693123678392e+01  1.9369278031739910e+01  1.9363447992751905e+01  2.0221615894104843e+01  2.0213055446640968e+01  2.1032827957845175e+01  2.1027248815720203e+01  2.1806941204783563e+01  2.1798751692782801e+01  2.2542507092987421e+01  2.2537169442007507e+01  2.3243636039438041e+01  2.3235797665072884e+01  2.3909162511096952e+01  2.3904049498641850e+01  2.4543204455210461e+01  2.4535686817610713e+01  2.5144786467556710e+01  2.5139874684004553e+01  2.5717962967842482e+01  2.5710726615123122e+01  2.6261857540546032e+01  2.6257118107391189e+01  2.6780400639334655e+01  2.6773398800762632e+01  2.7272730969987812e+01  2.7268130717576078e+01  2.7742608135213949e+01  2.7735788449822000e+01  2.8189112074258141e+01  2.8184614679934459e+01  2.8615798528815048e+01  2.8609104727262082e+01  2.9021625129070351e+01  2.9017192201359578e+01  2.9409922998656256e+01  2.9403296501328352e+01  2.9779473170944492e+01  2.9775065315465124e+01  3.0133371194605594e+01  3.0126752744002552e+01  3.0470175098081903e+01  3.0465753044206490e+01  3.0792741514789579e+01  3.0786072999489036e+01  3.1099366501370714e+01  3.1094892431311340e+01  3.1392671189806741e+01  3.1385897847177183e+01  3.1670659638604214e+01  3.1666098826440329e+01  3.1935728830979016e+01  3.1928801997800701e+01  3.2185573805935654e+01  3.2180896654525604e+01  3.2422390079901106e+01  3.2415270529201692e+01  3.2643566041967432e+01  3.2638750474857368e+01  3.2851134561930891e+01  3.2843796253638097e+01  3.3042206425127389e+01  3.3037240425755805e+01  3.3218711064594380e+01  3.3211144844097745e+01  3.3377542731415765e+01  3.3372426607743741e+01  3.3520607688771548e+01  3.3512824168493481e+01  3.3644676472435400e+01  3.3639424269414043e+01  3.3751727495577455e+01  3.3743758178969365e+01  3.3838523159031730e+01  3.3833162598879440e+01  3.3907210333689683e+01  3.3899106148569423e+01  3.3954663496216575e+01  3.3949234015315014e+01  3.3983275165200169e+01  3.3975102032001644e+01  3.3990133148225915e+01  3.3984682009562242e+01  3.3977913356299432e+01  3.3968340663479530e+01  3.3958871150246097e+01  3.3938554396602242e+01  3.3906076817099034e+01  3.3872409772964758e+01  3.3826765098217372e+01  3.3780051856778691e+01  3.3721603974920932e+01  3.3662235439400732e+01  3.3591421276563700e+01  3.3519850869970000e+01  3.3437154076411055e+01  3.3577097251851072e+01  3.3423045365518945e+01  3.3466834580669072e+01  3.3301683666078588e+01  3.3332222383781414e+01  3.3495191199026493e+01  3.3329598975507629e+01  3.3374241781622125e+01  3.3197899835444545e+01  3.3229376581841045e+01  3.3156545604878048e+01  3.3174118049484385e+01  3.3042848994638803e+01  3.3061457622286888e+01  3.2988464704656018e+01  3.2993410713807393e+01  3.2865269361573510e+01  3.2871355092528525e+01  3.2798279290701061e+01  3.2790970612416636e+01  3.2665966627092999e+01  3.2659898392195856e+01  3.2586784950034286e+01  3.2567601351277382e+01  3.2445683901732686e+01  3.2427831064669952e+01  3.2354690777737822e+01  3.2323997290597539e+01  3.2205060875707112e+01  3.2175771441461379e+01  3.2102581150157569e+01  3.2060707451223216e+01  3.1944598890790438e+01  3.1904180050633705e+01  3.1830884031271847e+01  3.1778106595705474e+01  3.1664632616736814e+01  3.1613334139830531e+01  3.1539846148756094e+01  3.1476373489759975e+01  3.1702598155618645e+01  3.1390463036030308e+01  3.1604568294535270e+01  3.1282297674049641e+01  3.1484260018241059e+01  3.1152075307131469e+01  3.1341928651152202e+01  3.0999988732212469e+01  3.1177818552757127e+01  3.1365308422456060e+01  3.1404841215400936e+01  3.1303309098747501e+01  3.1229514838175046e+01  3.0826204032617071e+01  3.0992138912902323e+01  3.1281213332875510e+01  3.1096919581556978e+01  3.1124935988952387e+01  3.0962133739572241e+01  3.1002300015085869e+01  3.0630838566122943e+01  3.0785039794485904e+01  3.0808164622776509e+01  3.0824875724237355e+01  3.0674189760486286e+01  3.0703031436942794e+01  3.0413939526753424e+01  3.0556589426900540e+01  3.0498868409378165e+01  3.0504434269248868e+01  3.0175463904281962e+01  3.0306753538721772e+01  3.0022220876530479e+01  3.0365475152443331e+01  3.0383152771661745e+01  3.0168672495406486e+01  3.0163191550862141e+01  2.9915260472330907e+01  3.0035377293810971e+01  3.0035603772525324e+01  3.0042220085668667e+01  2.9817028095090588e+01  2.9800528705912541e+01  2.9811482616239697e+01  2.9633054255986803e+01  2.9742170179380548e+01  2.9684003974519673e+01  2.9679595281021303e+01  2.9448677853911931e+01  2.9432084633519313e+01  2.9328433757870741e+01  2.9426694021604142e+01  2.9309915124256985e+01  2.9294444594413452e+01  2.9000841089645736e+01  2.9088354171018281e+01  2.9502816723726820e+01  2.9153643219172015e+01  2.9556842768178360e+01  2.9196762201220253e+01  2.9588795394826327e+01  2.9217743361406448e+01  2.9598686024663664e+01  2.9216601391923472e+01  2.9586517840136029e+01  2.9193335515344256e+01  2.9552286911847826e+01  2.9147929369678959e+01  2.9495980813031000e+01  2.9080348703285200e+01  2.9417574794049266e+01  2.8990536998295504e+01  2.9317025717994159e+01  2.8878409243803965e+01  2.9194264068260928e+01  2.8743844168382566e+01  2.9049184426228713e+01  2.8586675306282533e+01  2.8881634875013823e+01  2.8406681313420126e+01  2.8691405813687595e+01  2.9057242696185856e+01  2.9029502522438367e+01  2.8203575965941894e+01  2.8478218666911186e+01  2.8912387414776425e+01  2.8885740287415789e+01  2.8810801989103389e+01  2.8649565063254244e+01  2.8550307511111708e+01  2.8641635816208286e+01  2.8602568223213407e+01  2.7976998271581046e+01  2.8241714953145362e+01  2.8414625461836639e+01  2.8490284728441928e+01  2.8452265266992271e+01  2.7726503102773741e+01  2.7981446137082354e+01  2.8185003477275394e+01  2.8073557152593967e+01  2.8200586839995847e+01  2.8149928432787974e+01  3.1539435820579602e+01  2.8505931005416116e+01  2.8069358818914690e+01  2.8073867265822887e+01  2.7451552730077438e+01  2.7696864645347787e+01  2.7447045888477053e+01  2.7693045891607838e+01  2.7568879350893777e+01  2.7732649763156950e+01  2.7772445599771849e+01  2.7670054147743599e+01  2.7621658689899959e+01  2.7614817942370042e+01  2.7151509597496336e+01  2.7387316376333892e+01  2.7918057462069356e+01  2.7598838946479866e+01  2.7052034990119971e+01  2.7253978575634370e+01  2.7786526371413679e+01  2.7431904899546986e+01  2.7288029768487892e+01  2.7316800602929707e+01  2.7171905316602622e+01  2.7034404538550017e+01  2.7145720766677737e+01  2.7127243929655737e+01  2.6882560992306278e+01  2.7050767836881768e+01  2.7586184265478529e+01  2.7195124273293619e+01  2.7717120475398225e+01  2.7315930991302228e+01  2.6776441471122208e+01  2.6887066560037912e+01  2.7413429542616377e+01  2.6974143006183088e+01  2.6814642344729311e+01  2.6832155796435401e+01  2.6619648342822913e+01  2.6468122831765893e+01  2.7487807671527211e+01  2.7037850751397514e+01  2.6639932562558638e+01  2.6609457612321449e+01  2.6505718770304686e+01  2.6558571802119577e+01  2.7078318594997352e+01  2.6587881739241411e+01  2.7095627052678399e+01  2.6593711230233385e+01  2.6310921408110516e+01  2.6316874434419912e+01  2.6034215350054929e+01  2.5867905845180587e+01  2.6102546636479090e+01  2.6121599398950657e+01  2.6059638381891759e+01  2.6066247321949348e+01  2.6060247400336646e+01  2.6576072688356057e+01  2.6030380280896185e+01  2.6534928525128773e+01  2.5976578364386050e+01  2.5775174069243526e+01  2.5769193766088858e+01  2.6470190445657018e+01  2.5898719014855605e+01  2.9153215594204042e+01  2.5413444099985281e+01  2.5231531954990547e+01  2.5563219521985094e+01  2.5570490603653948e+01  2.5511650006836192e+01  2.6381717840642388e+01  2.5796622872853170e+01  2.5205597111733688e+01  2.5199429155682012e+01  2.5187243060927425e+01  2.6269315369011142e+01  2.5670051552727678e+01  2.5175873602520902e+01  2.5034407308166852e+01  2.5518704862138385e+01  2.4867509102773010e+01  2.4989685848577253e+01  2.4984749549875616e+01  2.4755096858505624e+01  2.4927475173781946e+01  2.4556715129137203e+01  2.5342217715691216e+01  2.4674764763117057e+01  2.6834364747267237e+01  2.4517293850258788e+01  2.4606508051035192e+01  2.4587713864578827e+01  2.4245867182732102e+01  2.4408541548020782e+01  2.4380070253831249e+01  2.4362438333439133e+01  2.5140156943151144e+01  2.4455690410926032e+01  2.3969995146057890e+01  2.3938037744112062e+01  2.4912018205086607e+01  2.4209730389821228e+01  2.3729944908581398e+01  2.3465172869335458e+01  2.3936255636674176e+01  2.3171986599330950e+01  3.1218970270864318e+01  3.1443119233330009e+01  3.1112445964357423e+01  3.1324594352977002e+01  3.0983901012161791e+01  3.1184079959327033e+01  3.0833492356689813e+01  3.1021781893961528e+01  3.0661348859420205e+01  3.0837870326769995e+01  3.0467550618365188e+01  3.0632457126979915e+01  3.0252108711007345e+01  3.0405574282457540e+01  3.0014946141342428e+01  3.0157154130528792e+01  2.9755880612725807e+01  2.9887011958731922e+01  2.9474609574311760e+01  2