<?xml version="1.0"?>
<VTKFile type="UnstructuredGrid"  version="0.1"  >
<UnstructuredGrid>
<Piece  NumberOfPoints="8707" NumberOfCells="17106">
<Points>
<DataArray  type="Float64"  NumberOfComponents="3"  format="ascii">0 0 0  24 0 0  0 24 0  -24 0 0  0 -24 0  23.99487400288311 0.4960056307788943 0  23.97949820118893 0.9917993845415323 0  23.95387916294778 1.487169474840046 0  23.91802783174803 1.981904296308677 0  23.87195952208539 2.475792514714516 0  23.81569391277018 2.968623157836172 0  23.74925503854737 3.4601857051367 0  23.6726712799028 3.950270177299924 0  23.58597535089021 4.438667226454325 0  23.4892042850303 4.925168226174012 0  23.38239941978476 5.409565359032961 0  23.26560637846421 5.891651707489636 0  23.13887505122393 6.371221340045146 0  23.0022595734005 6.848069400780419 0  22.8558183025666 7.32199219612133 0  22.69961379325479 7.792787282935219 0  22.53371277126165 8.26025355193649 0  22.35818610361906 8.724191318164433 0  22.1731087695725 9.184402402590333 0  21.97855982794553 9.64069021851749 0  21.7746223831131 10.0928598559987 0  21.56138355103757 10.54071816173104 0  21.33893441964398 10.98407382687014 0  21.10737001202069 11.422737464183 0  20.86678924486664 11.8565216910491 0  20.61729488550603 12.28524121065952 0  20.35899350950899 12.70871288839947 0  20.09199545553603 13.12675582978215 0  19.81641477566336 13.53919146178496 0  19.53236918867969 13.94584360578866 0  19.23998002878202 14.34653855437154 0  18.93937219600496 14.74110514246454 0  18.63067409938515 15.12937482523648 0  18.31401760442001 15.51118174688808 0  17.98953797534125 15.8863628132356 0  17.65737381920936 16.25475775915162 0  17.31766702672083 16.61620921725608 0  16.970562708312 16.97056278864228 0  16.61620913671895 17.31766710399578 0  16.25475767943574 17.657373892593 0  15.88636273471959 17.98953804467788 0  15.51118167004444 18.31401766950325 0  15.12937474937716 18.63067416098808 0  14.74110506727146 18.93937225453008 0  14.34653848066587 19.23998008374161 0  13.94584353366598 19.53236924017429 0  13.53919139034405 19.81641482447401 0  13.12675575948677 20.09199550146229 0  12.70871281906658 20.35899355278872 0  12.28524114286092 20.61729492590523 0  11.85652162524116 20.86678928225875 0  11.42273739956418 21.10737004699065 0  10.98407376199692 21.33893445303703 0  10.54071809939439 21.5613835815121 0  10.09285979643608 21.77462241072126 0  9.640690161404049 21.97855985299781 0  9.184402348454745 22.1731087919962 0  8.724191267218668 22.35818612349816 0  8.260253502504627 22.53371278938205 0  7.792787236621528 22.6996138091543 0  7.321992153780769 22.85581831613064 0  6.84806936066482 23.00225958534343 0  6.371221302556867 23.13887506154622 0  5.891651673582267 23.26560638705072 0  5.409565327061973 23.38239942718131 0  4.925168196798831 23.48920429118963 0  4.438667201106657 23.58597535566041 0  3.950270154991194 23.67267128362547 0  3.460185685885364 23.74925504135222 0  2.968623142045634 23.81569391473847 0  2.475792501608699 23.87195952344462 0  1.981904285069455 23.91802783267934 0  1.487169466854936 23.95387916344354 0  0.9917993798090214 23.97949820138466 0  0.4960056274668265 23.99487400295157 0  -0.4960056307788943 23.99487400288311 0  -0.9917993845415323 23.97949820118893 0  -1.487169474840046 23.95387916294778 0  -1.981904296308677 23.91802783174803 0  -2.475792514714516 23.87195952208539 0  -2.968623157836172 23.81569391277018 0  -3.4601857051367 23.74925503854737 0  -3.950270177299924 23.6726712799028 0  -4.438667226454325 23.58597535089021 0  -4.925168226174012 23.4892042850303 0  -5.409565359032961 23.38239941978476 0  -5.891651707489636 23.26560637846421 0  -6.371221340045146 23.13887505122393 0  -6.848069400780419 23.0022595734005 0  -7.32199219612133 22.8558183025666 0  -7.792787282935219 22.69961379325479 0  -8.26025355193649 22.53371277126165 0  -8.724191318164433 22.35818610361906 0  -9.184402402590333 22.1731087695725 0  -9.64069021851749 21.97855982794553 0  -10.0928598559987 21.7746223831131 0  -10.54071816173104 21.56138355103757 0  -10.98407382687014 21.33893441964398 0  -11.422737464183 21.10737001202069 0  -11.8565216910491 20.86678924486664 0  -12.28524121065952 20.61729488550603 0  -12.70871288839947 20.35899350950899 0  -13.12675582978215 20.09199545553603 0  -13.53919146178496 19.81641477566336 0  -13.94584360578866 19.53236918867969 0  -14.34653855437154 19.23998002878202 0  -14.74110514246454 18.93937219600496 0  -15.12937482523648 18.63067409938515 0  -15.51118174688808 18.31401760442001 0  -15.8863628132356 17.98953797534125 0  -16.25475775915162 17.65737381920936 0  -16.61620921725608 17.31766702672083 0  -16.97056278864228 16.970562708312 0  -17.31766710399578 16.61620913671895 0  -17.657373892593 16.25475767943574 0  -17.98953804467788 15.88636273471959 0  -18.31401766950325 15.51118167004444 0  -18.63067416098808 15.12937474937716 0  -18.93937225453008 14.74110506727146 0  -19.23998008374161 14.34653848066587 0  -19.53236924017429 13.94584353366598 0  -19.81641482447401 13.53919139034405 0  -20.09199550146229 13.12675575948677 0  -20.35899355278872 12.70871281906658 0  -20.61729492590523 12.28524114286092 0  -20.86678928225875 11.85652162524116 0  -21.10737004699065 11.42273739956418 0  -21.33893445303703 10.98407376199692 0  -21.5613835815121 10.54071809939439 0  -21.77462241072126 10.09285979643608 0  -21.97855985299781 9.640690161404049 0  -22.1731087919962 9.184402348454745 0  -22.35818612349816 8.724191267218668 0  -22.53371278938205 8.260253502504627 0  -22.6996138091543 7.792787236621528 0  -22.85581831613064 7.321992153780769 0  -23.00225958534343 6.84806936066482 0  -23.13887506154622 6.371221302556867 0  -23.26560638705072 5.891651673582267 0  -23.38239942718131 5.409565327061973 0  -23.48920429118963 4.925168196798831 0  -23.58597535566041 4.438667201106657 0  -23.67267128362547 3.950270154991194 0  -23.74925504135222 3.460185685885364 0  -23.81569391473847 2.968623142045634 0  -23.87195952344462 2.475792501608699 0  -23.91802783267934 1.981904285069455 0  -23.95387916344354 1.487169466854936 0  -23.97949820138466 0.9917993798090214 0  -23.99487400295157 0.4960056274668265 0  -23.99487400288311 -0.4960056307788943 0  -23.97949820118893 -0.9917993845415323 0  -23.95387916294778 -1.487169474840046 0  -23.91802783174803 -1.981904296308677 0  -23.87195952208539 -2.475792514714516 0  -23.81569391277018 -2.968623157836172 0  -23.74925503854737 -3.4601857051367 0  -23.6726712799028 -3.950270177299924 0  -23.58597535089021 -4.438667226454325 0  -23.4892042850303 -4.925168226174012 0  -23.38239941978476 -5.409565359032961 0  -23.26560637846421 -5.891651707489636 0  -23.13887505122393 -6.371221340045146 0  -23.0022595734005 -6.848069400780419 0  -22.8558183025666 -7.32199219612133 0  -22.69961379325479 -7.792787282935219 0  -22.53371277126165 -8.26025355193649 0  -22.35818610361906 -8.724191318164433 0  -22.1731087695725 -9.184402402590333 0  -21.97855982794553 -9.64069021851749 0  -21.7746223831131 -10.0928598559987 0  -21.56138355103757 -10.54071816173104 0  -21.33893441964398 -10.98407382687014 0  -21.10737001202069 -11.422737464183 0  -20.86678924486664 -11.8565216910491 0  -20.61729488550603 -12.28524121065952 0  -20.35899350950899 -12.70871288839947 0  -20.09199545553603 -13.12675582978215 0  -19.81641477566336 -13.53919146178496 0  -19.53236918867969 -13.94584360578866 0  -19.23998002878202 -14.34653855437154 0  -18.93937219600496 -14.74110514246454 0  -18.63067409938515 -15.12937482523648 0  -18.31401760442001 -15.51118174688808 0  -17.98953797534125 -15.8863628132356 0  -17.65737381920936 -16.25475775915162 0  -17.31766702672083 -16.61620921725608 0  -16.970562708312 -16.97056278864228 0  -16.61620913671895 -17.31766710399578 0  -16.25475767943574 -17.657373892593 0  -15.88636273471959 -17.98953804467788 0  -15.51118167004444 -18.31401766950325 0  -15.12937474937716 -18.63067416098808 0  -14.74110506727146 -18.93937225453008 0  -14.34653848066587 -19.23998008374161 0  -13.94584353366598 -19.53236924017429 0  -13.53919139034405 -19.81641482447401 0  -13.12675575948677 -20.09199550146229 0  -12.70871281906658 -20.35899355278872 0  -12.28524114286092 -20.61729492590523 0  -11.85652162524116 -20.86678928225875 0  -11.42273739956418 -21.10737004699065 0  -10.98407376199692 -21.33893445303703 0  -10.54071809939439 -21.5613835815121 0  -10.09285979643608 -21.77462241072126 0  -9.640690161404049 -21.97855985299781 0  -9.184402348454745 -22.1731087919962 0  -8.724191267218668 -22.35818612349816 0  -8.260253502504627 -22.53371278938205 0  -7.792787236621528 -22.6996138091543 0  -7.321992153780769 -22.85581831613064 0  -6.84806936066482 -23.00225958534343 0  -6.371221302556867 -23.13887506154622 0  -5.891651673582267 -23.26560638705072 0  -5.409565327061973 -23.38239942718131 0  -4.925168196798831 -23.48920429118963 0  -4.438667201106657 -23.58597535566041 0  -3.950270154991194 -23.67267128362547 0  -3.460185685885364 -23.74925504135222 0  -2.968623142045634 -23.81569391473847 0  -2.475792501608699 -23.87195952344462 0  -1.981904285069455 -23.91802783267934 0  -1.487169466854936 -23.95387916344354 0  -0.9917993798090214 -23.97949820138466 0  -0.4960056274668265 -23.99487400295157 0  0.4960056307788943 -23.99487400288311 0  0.9917993845415323 -23.97949820118893 0  1.487169474840046 -23.95387916294778 0  1.981904296308677 -23.91802783174803 0  2.475792514714516 -23.87195952208539 0  2.968623157836172 -23.81569391277018 0  3.4601857051367 -23.74925503854737 0  3.950270177299924 -23.6726712799028 0  4.438667226454325 -23.58597535089021 0  4.925168226174012 -23.4892042850303 0  5.409565359032961 -23.38239941978476 0  5.891651707489636 -23.26560637846421 0  6.371221340045146 -23.13887505122393 0  6.848069400780419 -23.0022595734005 0  7.32199219612133 -22.8558183025666 0  7.792787282935219 -22.69961379325479 0  8.26025355193649 -22.53371277126165 0  8.724191318164433 -22.35818610361906 0  9.184402402590333 -22.1731087695725 0  9.64069021851749 -21.97855982794553 0  10.092
[...]
<PointData  Scalars="f"> 
<DataArray  type="Float64"  Name="f"  format="ascii">0.0000000000000000e+00  0.0000000000000000e+00  0.0000000000000000e+00  0.0000000000000000e+00  0.0000000000000000e+00  0.0000000000000000e+00  0.0000000000000000e+00  0.0000000000000000e+00  0.0000000000000000e+00  0.0000000000000000e+00  0.0000000000000000e+00  0.0000000000000000e+00  0.0000000000000000e+00  0.0000000000000000e+00  0.0000000000000000e+00  0.0000000000000000e+00  0.0000000000000000e+00  0.0000000000000000e+00  0.0000000000000000e+00  0.0000000000000000e+00  0.0000000000000000e+00  0.0000000000000000e+00  0.0000000000000000e+00  0.0000000000000000e+00  0.0000000000000000e+00  0.0000000000000000e+00  0.0000000000000000e+00  0.0000000000000000e+00  0.0000000000000000e+00  0.0000000000000000e+00  0.0000000000000000e+00  0.0000000000000000e+00  0.0000000000000000e+00  0.0000000000000000e+00  0.0000000000000000e+00  0.0000000000000000e+00  0.0000000000000000e+00  0.0000000000000000e+00  0.0000000000000000e+00  0.0000000000000000e+00  0.0000000000000000e+00  0.0000000000000000e+00  0.0000000000000000e+00  0.0000000000000000e+00  0.0000000000000000e+00  0.0000000000000000e+00  0.0000000000000000e+00  0.0000000000000000e+00  0.0000000000000000e+00  0.0000000000000000e+00  0.0000000000000000e+00  0.0000000000000000e+00  0.0000000000000000e+00  0.0000000000000000e+00  0.0000000000000000e+00  0.0000000000000000e+00  0.0000000000000000e+00  0.0000000000000000e+00  0.0000000000000000e+00  0.0000000000000000e+00  0.0000000000000000e+00  0.0000000000000000e+00  0.0000000000000000e+00  0.0000000000000000e+00  0.0000000000000000e+00  0.0000000000000000e+00  0.0000000000000000e+00  0.0000000000000000e+00  0.0000000000000000e+00  0.0000000000000000e+00  0.0000000000000000e+00  0.0000000000000000e+00  0.0000000000000000e+00  0.0000000000000000e+00  0.0000000000000000e+00  0.0000000000000000e+00  0.0000000000000000e+00  0.0000000000000000e+00  0.0000000000000000e+00  0.0000000000000000e+00  0.0000000000000000e+00  0.0000000000000000e+00  0.0000000000000000e+00  0.0000000000000000e+00  0.0000000000000000e+00  0.0000000000000000e+00  0.0000000000000000e+00  0.0000000000000000e+00  0.0000000000000000e+00  0.0000000000000000e+00  0.0000000000000000e+00  0.0000000000000000e+00  0.0000000000000000e+00  0.0000000000000000e+00  0.0000000000000000e+00  0.0000000000000000e+00  0.0000000000000000e+00  0.0000000000000000e+00  0.0000000000000000e+00  0.0000000000000000e+00  0.0000000000000000e+00  0.0000000000000000e+00  0.0000000000000000e+00  0.0000000000000000e+00  0.0000000000000000e+00  0.0000000000000000e+00  0.0000000000000000e+00  0.0000000000000000e+00  0.0000000000000000e+00  0.0000000000000000e+00  0.0000000000000000e+00  0.0000000000000000e+00  0.0000000000000000e+00  0.0000000000000000e+00  0.0000000000000000e+00  0.0000000000000000e+00  0.0000000000000000e+00  0.0000000000000000e+00  0.0000000000000000e+00  0.0000000000000000e+00  0.0000000000000000e+00  0.0000000000000000e+00  0.0000000000000000e+00  0.0000000000000000e+00  0.0000000000000000e+00  0.0000000000000000e+00  0.0000000000000000e+00  0.0000000000000000e+00  0.0000000000000000e+00  0.0000000000000000e+00  0.0000000000000000e+00  0.0000000000000000e+00  0.0000000000000000e+00  0.0000000000000000e+00  0.0000000000000000e+00  0.0000000000000000e+00  0.0000000000000000e+00  0.0000000000000000e+00  0.0000000000000000e+00  0.0000000000000000e+00  0.0000000000000000e+00  0.0000000000000000e+00  0.0000000000000000e+00  0.0000000000000000e+00  0.0000000000000000e+00  0.0000000000000000e+00  0.0000000000000000e+00  0.0000000000000000e+00  0.0000000000000000e+00  0.0000000000000000e+00  0.0000000000000000e+00  0.0000000000000000e+00  0.0000000000000000e+00  0.0000000000000000e+00  0.0000000000000000e+00  0.0000000000000000e+00  0.0000000000000000e+00  0.0000000000000000e+00  0.0000000000000000e+00  0.0000000000000000e+00  0.0000000000000000e+00  0.0000000000000000e+00  0.0000000000000000e+00  0.0000000000000000e+00  0.0000000000000000e+00  0.0000000000000000e+00  0.0000000000000000e+00  0.0000000000000000e+00  0.0000000000000000e+00  0.0000000000000000e+00  0.0000000000000000e+00  0.0000000000000000e+00  0.0000000000000000e+00  0.0000000000000000e+00  0.0000000000000000e+00  0.0000000000000000e+00  0.0000000000000000e+00  0.0000000000000000e+00  0.0000000000000000e+00  0.0000000000000000e+00  0.0000000000000000e+00  0.0000000000000000e+00  0.0000000000000000e+00  0.0000000000000000e+00  0.0000000000000000e+00  0.0000000000000000e+00  0.0000000000000000e+00  0.0000000000000000e+00  0.0000000000000000e+00  0.0000000000000000e+00  0.0000000000000000e+00  0.0000000000000000e+00  0.0000000000000000e+00  0.0000000000000000e+00  0.0000000000000000e+00  0.0000000000000000e+00  0.0000000000000000e+00  0.0000000000000000e+00  0.0000000000000000e+00  0.0000000000000000e+00  0.0000000000000000e+00  0.0000000000000000e+00  0.0000000000000000e+00  0.0000000000000000e+00  0.0000000000000000e+00  0.0000000000000000e+00  0.0000000000000000e+00  0.0000000000000000e+00  0.0000000000000000e+00  0.0000000000000000e+00  0.0000000000000000e+00  0.0000000000000000e+00  0.0000000000000000e+00  0.0000000000000000e+00  0.0000000000000000e+00  0.0000000000000000e+00  0.0000000000000000e+00  0.0000000000000000e+00  0.0000000000000000e+00  0.0000000000000000e+00  0.0000000000000000e+00  0.0000000000000000e+00  0.0000000000000000e+00  0.0000000000000000e+00  0.0000000000000000e+00  0.0000000000000000e+00  0.0000000000000000e+00  0.0000000000000000e+00  0.0000000000000000e+00  0.0000000000000000e+00  0.0000000000000000e+00  0.0000000000000000e+00  0.0000000000000000e+00  0.0000000000000000e+00  0.0000000000000000e+00  0.0000000000000000e+00  0.0000000000000000e+00  0.0000000000000000e+00  0.0000000000000000e+00  0.0000000000000000e+00  0.0000000000000000e+00  0.0000000000000000e+00  0.0000000000000000e+00  0.0000000000000000e+00  0.0000000000000000e+00  0.0000000000000000e+00  0.0000000000000000e+00  0.0000000000000000e+00  0.0000000000000000e+00  0.0000000000000000e+00  0.0000000000000000e+00  0.0000000000000000e+00  0.0000000000000000e+00  0.0000000000000000e+00  0.0000000000000000e+00  0.0000000000000000e+00  0.0000000000000000e+00  0.0000000000000000e+00  0.0000000000000000e+00  0.0000000000000000e+00  0.0000000000000000e+00  0.0000000000000000e+00  0.0000000000000000e+00  0.0000000000000000e+00  0.0000000000000000e+00  0.0000000000000000e+00  0.0000000000000000e+00  0.0000000000000000e+00  0.0000000000000000e+00  0.0000000000000000e+00  0.0000000000000000e+00  0.0000000000000000e+00  0.0000000000000000e+00  0.0000000000000000e+00  0.0000000000000000e+00  0.0000000000000000e+00  0.0000000000000000e+00  0.0000000000000000e+00  0.0000000000000000e+00  0.0000000000000000e+00  0.0000000000000000e+00  0.0000000000000000e+00  0.0000000000000000e+00  0.0000000000000000e+00  0.0000000000000000e+00  0.0000000000000000e+00  0.0000000000000000e+00  0.0000000000000000e+00  0.0000000000000000e+00  0.0000000000000000e+00  0.0000000000000000e+00  0.0000000000000000e+00  0.0000000000000000e+00  0.0000000000000000e+00  0.0000000000000000e+00  0.0000000000000000e+00  0.0000000000000000e+00  0.0000000000000000e+00  0.0000000000000000e+00  0.0000000000000000e+00  0.0000000000000000e+00  0.0000000000000000e+00  0.0000000000000000e+00  0.0000000000000000e+00  0.0000000000000000e+00  7.0962124891161038e-01  2.1040904873970887e+00  1.6940819476383693e+00  8.3602301986580119e-01  2.4782786396964864e+00  1.4126208634636264e+00  5.4235174859348378e-01  1.0186203704136771e+00  2.5772104785911876e+00  1.8992699116304501e+00  5.9255276745607843e-01  7.6637106788562914e-01  1.4939231321466344e+00  2.6418268156391771e+00  9.5179405619332536e-01  5.4623278386658225e-01  1.7758888532586365e+00  2.7763085830419363e+00  6.6455025390724931e-01  1.9906493826140617e+00  2.4648471240631733e+00  7.1193340700320562e-01  5.5232428859286675e-01  6.5404426174349339e-01  2.6351603011095146e+00  1.5534569475551940e+00  5.2453106189500165e-01  8.7697039489986051e-01  2.4545325158920264e+00  1.2588356138554166e+00  5.4494912958416963e-01  1.2238543982578118e+00  2.3086854499373350e+00  2.1019428482553919e+00  5.5391830653824048e-01  7.4267666401730592e-01  1.6050674519718005e+00  2.4808927151859361e+00  8.3065454408454742e-01  5.3124316972583507e-01  2.5419099372915950e+00  1.6164703396919002e+00  5.9313966300917753e-01  7.8840027032333959e-01  2.6968091896136395e+00  1.2070214391328826e+00  1.1768727009459565e+00  6.1461541524462571e-01  1.7400149678344672e+00  2.5403864310067101e+00  7.4535929235498499e-01  5.6760687784095332e-01  1.8411226177317694e+00  2.3241656135295155e+00  6.7172539764418826e-01  7.2286442202166279e-01  2.4728931845234707e+00  1.7903593243512552e+00  5.5148667616368807e-01  8.9345817845236797e-01  3.0234105385410488e+00  1.3122666143197035e+00  4.9235683484280407e-01  1.0452496058778464e+00  6.2117995823696071e-01  2.1028199771984903e+00  1.8769556470580813e+00  6.5520217042491136e-01  5.5585973386979215e-01  2.3921646361573510e+00  1.7472706721280358e+00  6.1114183652224252e-01  7.8474954863592894e-01  1.6011903448802089e+00  2.4912692501119253e+00  7.7149424371839581e-01  1.7032042500300109e+00  2.3407968614238643e+00  8.0493860464478983e-01  6.1787509979278843e-01  1.7720334244367726e+00  2.2027150405901006e+00  6.9455765764345845e-01  6.4415935516433853e-01  2.7739072947826751e+00  1.2668458963815037e+00  1.1572351701723698e+00  5.4608339101910408e-01  1.9507078307849315e+00  2.2396247021226934e+00  6.6830232114148247e-01  2.4953746509190604e+00  1.0444650418813572e+00  1.4548568754157072e+00  4.8867097639443152e-01  2.6699307339669303e+00  9.2839887117871600e-01  1.2796789053864659e+00  5.6084730598930788e-01  2.6454716046592344e+00  1.5554015538376493e+00  5.4205651732304250e-01  9.4243665478208227e-01  2.5903120019510268e+00  1.6609652514638880e+00  5.5541139667325368e-01  8.2489624377381743e-01  2.6862484391657042e+00  1.6229298878738658e+00  5.4661490775955279e-01  9.0259864424860692e-01  2.8854688758359521e+00  1.2620719178717150e+00  1.1892231315635644e+00  5.7958824423063926e-01  2.2991923504243883e+00  2.0026825348583093e+00  6.8654407129101480e-01  7.2827038989121473e-01  1.4334482186332769e+00  2.5931377994235447e+00  8.6982349393386404e-01  6.7791884151228132e-01  2.6639673729613680e+00  1.3342592117549397e+00  4.2931598986886138e-01  1.0646307472720644e+00  6.2051297983008802e-01  2.6260586708297615e+00  5.0794101657963209e+00  5.1122107421783811e+00  7.3388510655738513e+00  7.3559248188435644e+00  9.3946342978411632e+00  9.3590711126389632e+00  1.1244137373742465e+01  1.1248902494620101e+01  1.2940651142937188e+01  1.2914091470737871e+01  1.4463061519496602e+01  1.4463075635257377e+01  1.5848354144133848e+01  1.5830972169364946e+01  1.7089979692600686e+01  1.7082438133256119e+01  1.8207812164129670e+01  1.8200987915991881e+01  1.9212296017789750e+01  1.9196896725799039e+01  2.0104170935259216e+01  2.0106832548416566e+01  2.0909774866541017e+01  2.0888329507179677e+01  2.1613148130351217e+01  2.1622460079441286e+01  2.2251631932948492e+01  2.2227401022096601e+01  2.2798356463876605e+01  2.2810395164857031e+01  2.3294420731580537e+01  2.3271486105817058e+01  2.3709967507246461e+01  2.3720335862509959e+01  2.4081541365858975e+01  2.4064252799005164e+01  2.4385210837003335e+01  2.4389552741241960e+01  2.4644644077945802e+01  2.4637163526128454e+01  2.4850734862595406e+01  2.4845129762264616e+01  2.5006733221453530e+01  2.5012685112999371e+01  2.5126421429886722e+01  2.5107656344462200e+01  2.5186400696745320e+01  2.5208624689874856e+01  2.5229949142077505e+01  2.5195679811402478e+01  2.5202408689050625e+01  2.5242801186562570e+01  2.5181283799303404e+01  2.5130109250047777e+01  2.5077810646927304e+01  2.5137231489680030e+01  2.5006317417905517e+01  2.4937802674225587e+01  2.4842896707057445e+01  2.4921110582657025e+01  2.4739012286566112e+01  2.4653697107731954e+01  2.4536396017184160e+01  2.4632021797447408e+01  2.4421560563828034e+01  2.4320980484279847e+01  2.4204510776214970e+01  2.4314973416654258e+01  2.4102225190506459e+01  2.3988941735806794e+01  2.3897528664819976e+01  2.4019045871897585e+01  2.3830764115050783e+01  2.3708361468747665e+01  2.3664089979591445e+01  2.3791764361945365e+01  2.3651798451975672e+01  2.3524772581750089e+01  2.3543802132483517e+01  2.3671904267410305e+01  2.3597228220195575e+01  2.3470692754951493e+01  2.3559748098665974e+01  2.3682245946822032e+01  2.3679633737617031e+01  2.3558806314328745e+01  2.3713165584197863e+01  2.3824479463468801e+01  2.3889033321696438e+01  2.3778538625469189e+01  2.3982591197448127e+01  2.4078457457949980e+01  2.4194832698241381e+01  2.4097935286619911e+01  2.4328622363236985e+01  2.4406880127907087e+01  2.4553112169644525e+01  2.4471035356175797e+01  2.4703312338606015e+01  2.4764429226624170e+01  2.4917108948765552e+01  2.4848580715223846e+01  2.5061013806435813e+01  2.5108244536815434e+01  2.5247032418456847e+01  2.5188136960610382e+01  2.5366486396944087e+01  2.5405665031037287e+01  2.5515292373490411e+01  2.5459646277353631e+01  2.5597041466112760e+01  2.5537811153363641e+01  2.5519867404246369e+01  2.5644346824935358e+01  2.5540619098339292e+01  2.5650494797107871e+01  2.5515335684038348e+01  2.5608523155158199e+01  2.5437417786031119e+01  2.5511328764683782e+01  2.5300454728071308e+01  2.5352036781317054e+01  2.5098689481746238e+01  2.5548426464031476e+01  2.5363929408182255e+01  2.5548605511617357e+01  2.5335266662414604e+01  2.5510669031453052e+01  2.5030822523332006e+01  2.4786221953908409e+01  2.4701432663741489e+01  2.4415672265072942e+01  2.4314741216960460e+01  2.5264190571816371e+01  2.5432086720931405e+01  2.3991642384835782e+01  2.3876893856717309e+01  2.5147770417142471e+01  2.5309013083729781e+01  2.3522325094075363e+01  2.3397590738421446e+01  2.4982168330756064e+01  2.5136574997251962e+01  2.3019142975123973e+01  2.2889552184426663e+01  2.4763036139285784e+01  2.4909401501627588e+01  2.2496007750965138e+01  2.2367620641247623e+01  2.4486093695236381e+01  2.4622331306812331e+01  2.1968272636551490e+01  2.1847597805934534e+01  2.4147807812848523e+01  2.4271200988535092e+01  2.1451503371220749e+01  2.1344961289879571e+01  2.3746069401862698e+01  2.3853596456044880e+01  2.0960222264977133e+01  2.0873621891261912e+01  2.3280760253674501e+01  2.3369448414828174e+01  2.3919774274833436e+01  2.3416232543908460e+01  2.3945824421382973e+01  2.3421783736565690e+01  2.3932708245572542e+01  2.3386616258390681e+01  2.3880972915361653e+01  2.3310988233229466e+01  2.3790688658721642e+01  2.0506777967342991e+01  2.0559625399391980e+01  2.0444868016942142e+01  2.2754113639976506e+01  2.3194880082552871e+01  2.3661474218182658e+01  2.2644370653105643e+01  2.0130244949021041e+01  2.0150264937357644e+01  2.2084696673505597e+01  2.1956753110811594e+01  2.3038044759851367e+01  2.3492600291598681e+01  1.9749982575904156e+01  1.9738809033999836e+01  2.1374604320384027e+01  2.1232463040978622e+01  2.2840117320026010e+01  2.3283154724055429e+01  1.9371178843669806e+01  1.9330986320361465e+01  2.2600766340209592e+01  2.3032248448821221e+01  2.2120360697696338e+01  2.0638610718321839e+01  2.0487041107835783e+01  1.8997840875414365e+01  1.8931144988442433e+01  2.2319866327010828e+01  2.2739237945746662e+01  1.9891616385943763e+01  1.9735696296161141e+01  1.8632481518872169e+01  1.8541930277335180e+01  1.8713251140785545e+01  2.1997668830024701e+01  2.2403938727229448e+01  1.9147446060551399e+01  1.8992092948360945e+01  1.8378309453174104e+01  1.8473936687744430e+01  2.1634950725320142e+01  2.2026805540298465e+01  1.8417834424154769e+01  1.8267386735524187e+01  2.1233121167935320e+01  2.1609058759936755e+01  2.2376705695327622e+01  2.1945413971665229e+01  2.2684305018253717e+01  2.2241671885630257e+01  2.2950207774092032e+01  2.2498128116701402e+01  2.3175769186815156e+01  2.2715722615232284e+01  2.3362872681998311e+01  2.2895854902238060e+01  2.3513706627358872e+01  2.3040199424626142e+01  2.3630558868459143e+01  2.3150536148803610e+01  2.3715641910034808e+01  2.3228607158166959e+01  2.3770956233853351e+01  2.3276005663970682e+01  2.3798194655308365e+01  2.3294100009924627e+01  2.3798687116061117e+01  2.3283992189864833e+01  2.3773382877997079e+01  2.3246508137379781e+01  2.3722865524924988e+01  1.8163621449097725e+01  1.8273858888002160e+01  2.3182215474148737e+01  2.3647395219707555e+01  1.7711705948518549e+01  1.7569601021691941e+01  2.2208727179860045e+01  2.0794273819832203e+01  2.0399816939056517e+01  1.7981085681552550e+01  1.8104726546620395e+01  2.3091463364043779e+01  2.3546972066499780e+01  2.2723011206367488e+01  1.7034799596570455e+01  1.6903373808054763e+01  2.2974438463033831e+01  2.3421414030429869e+01  1.9947577864510414e+01  1.9542102508804916e+01  1.7821567815121227e+01  1.7956565396470896e+01  2.0779014210551164e+01  1.7147511981134102e+01  1.6493370133853762e+01  1.6578600631487216e+01  2.2831230590192092e+01  2.3270442610915040e+01  2.2475040819131589e+01  1.9083594763465531e+01  1.8674054458653622e+01  1.7674682465874991e+01  1.7528706082240241e+01  1.7818298405110141e+01  1.5947970437530554e+01  1.6007858255673405e+01  2.2661901630186666e+01  2.3093769369342986e+01  2.3659442350076120e+01  2.3478532490370853e+01  2.2891176540953268e+01  2.3271638003116070e+01  2.3816680762197777e+01  2.3608375215507834e+01  1.7377346110914086e+01  1.7221626714253176e+01  1.8215389940730823e+01  1.7807782212737528e+01  1.5400416369430305e+01  1.5437216090905869e+01  2.3038384608200854e+01  2.3373140101040537e+01  2.3902769911327312e+01  2.3668042600439680e+01  2.4156998003929761e+01  2.3924975983485481e+01  2.3404995558205961e+01  2.3663404653469041e+01  2.4146363680904255e+01  2.3887913423330147e+01  1.7059869528076529e+01  1.6895358815673205e+01  1.7353803968534518e+01  1.6952911147051594e+01  2.4335004860283842e+01  2.4080926783620690e+01  1.4851710683235380e+01  1.4867690672965255e+01  2.3598036627240571e+01  2.3793736070821961e+01  2.4245040513669345e+01  2.3961265379704340e+01  2.4382911957556662e+01  2.4102894386205527e+01  1.6717377176877822e+01  1.6544755958800380e+01  1.6507100360744733e+01  1.6116382257899794e+01  1.4302137331352085e+01  1.4287637595952109e+01  1.4299496953760885e+01  2.3642628039184661e+01  2.3786154428636948e+01  2.4220852891412235e+01  2.3905963879714150e+01  2.4317247853942845e+01  2.4003843888980825e+01  1.6345072626872476e+01  1.6164789342416071e+01  2.4393997646982008e+01  2.4081422538020590e+01  2.4196010202209219e+01  1.5680904901632694e+01  1.5302525020896363e+01  1.3753839561883787e+01  1.3740504335730822e+01  2.3289799384686209e+01  2.4452783163476319e+01  2.4140124635053404e+01  1.5938507766114196e+01  1.6117157303139347e+01  1.5750836133189839e+01  2.4495014549199190e+01  2.4181141093733491e+01  2.3784576150706119e+01  2.3822867497796935e+01  2.4205409980274119e+01  2.3843217547901553e+01  1.3218102173307978e+01  1.3205126409005191e+01  1.4878380154500821e+01  1.5231479595787395e+01  1.4513334020641581e+01  2.4213607269292968e+01  2.3846163567238772e+01  2.4763280967089678e+01  2.3387780658305775e+01  1.5678448619606995e+01  1.5852904689572325e+01  1.4441680441431933e+01  1.4770340217833937e+01  1.2689888922510583e+01  1.2676102370667076e+01  2.4206145127423270e+01  2.3832005125218689e+01  1.5377621912470742e+01  1.5545173161450659e+01  2.4183175429056813e+01  2.3800802304883110e+01  2.3411537004705526e+01  2.3371049099366704e+01  2.3752375354442194e+01  2.3311766809345400e+01  2.0380252416596676e+01  2.0683427126711919e+01  2.0319389410521431e+01  2.0593962225860757e+01  2.0268547382326535e+01  2.0517462955772110e+01  2.0233491385836452e+01  2.0460160496412378e+01  2.0219171576348138e+01  2.0427327268098484e+01  2.0229439653507892e+01  2.0422969183811837e+01  2.0266817695017370e+01  2.0449584311836801e+01  2.0332338611271993e+01  2.0508008299216872e+01  2.0425469815807283e+01  2.0597357068106959e+01  2.0544122886568712e+01  2